
Running Job 1 of 1 F2_aug_dz.in
qchem F2_aug_dz.in_741497.0 /pscratch/sd/b/bschramm/qchem741497/ 1
/global/common/software/nersc9/qchem/6.2.1-cpu/exe/qcprog.exe_s F2_aug_dz.in_741497.0 /pscratch/sd/b/bschramm/qchem741497/
                  Welcome to Q-Chem
     A Quantum Leap Into The Future Of Chemistry


 Q-Chem 6.2, Q-Chem, Inc., Pleasanton, CA (2024)

 License issued to: National Energy Research Scientific Computing Center (site)

 E. Epifanovsky,  A. T. B. Gilbert,  Xintian Feng,  Joonho Lee,  Yuezhi Mao,  
 N. Mardirossian,  P. Pokhilko,  A. White,  M. Wormit,  M. P. Coons,  
 A. L. Dempwolff,  Zhengting Gan,  D. Hait,  P. R. Horn,  L. D. Jacobson,  
 I. Kaliman,  J. Kussmann,  A. W. Lange,  Ka Un Lao,  D. S. Levine,  Jie Liu,  
 S. C. McKenzie,  A. F. Morrison,  K. D. Nanda,  F. Plasser,  D. R. Rehn,  
 M. L. Vidal,  Zhi-Qiang You,  Ying Zhu,  Huseyin Aksu,  B. Alam,  
 B. Albrecht,  A. Aldossary,  E. Alguire,  J. H. Andersen,  
 J. E. Arias-Martinez,  V. Athavale,  D. Barton,  K. Begam,  A. Behn,  
 N. Bellonzi,  Y. A. Bernard,  E. J. Berquist,  H. Burton,  A. Carreras,  
 K. Carter-Fenk,  Mathew Chow,  Romit Chakraborty,  Chandrima Chakravarty,  
 Junhan Chen,  A. D. Chien,  K. D. Closser,  V. Cofer-Shabica,  L. Cunha,  
 S. Dasgupta,  Jia Deng,  Joseph Dickinson,  M. de Wergifosse,  
 M. Diedenhofen,  Hainam Do,  Wenjie Dou,  S. Ehlert,  Po-Tung Fang,  
 S. Fatehi,  Qingguo Feng,  Jonathan Fetherolf,  T. Friedhoff,  
 Thomas Froitzheim,  Sarai Folkestad,  B. Ganoe,  J. Gayvert,  Qinghui Ge,  
 G. Gidofalvi,  M. Gimferrer,  M. Goldey,  Montgomery Gray,  J. Gomes,  
 C. Gonzalez-Espinoza,  S. Gulania,  A. Gunina,  J. A. Gyamfi,  
 M. W. D. Hanson-Heine,  P. H. P. Harbach,  A. W. Hauser,  M. F. Herbst,  
 M. Hernandez Vera,  M. Hodecker,  Z. C. Holden,  S. Houck,  Xunkun Huang,  
 Kerwin Hui,  B. C. Huynh,  K. Ikeda,  M. Ivanov,  Nayanthara K. Jayadev,  
 Hyunjun Ji,  Zuxin Jin,  Hanjie Jiang,  Subrata Jana,  B. Kaduk,  
 S. Kaehler,  R. Kang,  K. Khistyaev,  Jaehoon Kim,  Yongbin Kim,  
 P. Klunzinger,  Z. Koczor-Benda,  Joong Hoon Koh,  D. Kosenkov,  
 Saikiran Kotaru,  L. Koulias,  T. Kowalczyk,  C. M. Krauter,  K. Kue,  
 A. Kunitsa,  T. Kus,  A. Landau,  K. V. Lawler,  D. Lefrancois,  S. Lehtola,  
 Rain Li,  Shaozhi Li,  Tao E. Li,  Yi-Pei Li,  Jiashu Liang,  M. Liebenthal,  
 Hung-Hsuan Lin,  You-Sheng Lin,  Fenglai Liu,  Kuan-Yu Liu,  Xiao Liu,  
 M. Loipersberger,  A. Luenser,  C. Malbon,  Aniket Mandal,  Manisha,  
 A. Manjanath,  P. Manohar,  E. Mansoor,  S. F. Manzer,  Shan-Ping Mao,  
 A. V. Marenich,  T. Markovich,  S. Mason,  F. Matz,  S. A. Maurer,  
 Samuel May,  Alexandra McIsaac,  P. F. McLaughlin,  M. F. S. J. Menger,  
 J.-M. Mewes,  S. A. Mewes,  P. Morgante,  Mohammad Mostafanejad,  
 Madhubani Mukherjee,  J. W. Mullinax,  Quyen Nguyen,  Avik Kumar Ojha,  
 K. J. Oosterbaan,  Eno Paenurk,  Xiaoliang Pan,  G. Paran,  V. Parravicini,  
 Alexander C. Paul,  Suranjan K. Paul,  F. Pavosevic,  Zheng Pei,  S. Prager,  
 E. I. Proynov,  E. Ramos,  B. Rana,  A. E. Rask,  A. Rettig,  R. M. Richard,  
 F. Rob,  E. Rossomme,  T. Scheele,  M. Scheurer,  M. Schneider,  
 P. E. Schneider,  Tim K. Schramm,  N. Sergueev,  S. M. Sharada,  
 Hengyuan Shen,  W. Skomorowski,  D. W. Small,  C. J. Stein,  
 Alistair J. Sterling,  Yingli Su,  Yu-Chuan Su,  E. J. Sundstrom,  
 J. Talbot,  Zhen Tao,  J. Thirman,  Hung-Yi Tsai,  T. Tsuchimochi,  
 N. M. Tubman,  C. Utku,  S. P. Veccham,  O. Vydrov,  Rahel Weiss,  
 J. Wenzel,  Jonathan Wong,  J. Witte,  H. Wu,  Yanze Wu,  A. Yamada,  
 Chou-Hsun Yang,  Kun Yao,  S. Yeganeh,  S. R. Yost,  Qi Yu,  A. Zech,  
 F. Zeller,  Chongxiao Zhao,  Igor Ying Zhang,  Xing Zhang,  Yu Zhang,  
 D. Zuev,  A. Aspuru-Guzik,  A. T. Bell,  N. A. Besley,  K. B. Bravaya,  
 B. R. Brooks,  D. Casanova,  Jeng-Da Chai,  Hsing-Ta Chen,  S. Coriani,  
 C. J. Cramer,  A. E. DePrince, III,  R. A. DiStasio Jr.,  A. Dreuw,  
 B. D. Dunietz,  T. R. Furlani,  W. A. Goddard III,  S. Grimme,  
 S. Hammes-Schiffer,  T. Head-Gordon,  W. J. Hehre,  Chao-Ping Hsu,  
 T.-C. Jagau,  Yousung Jung,  A. Klamt,  Jing Kong,  D. S. Lambrecht,  
 Xiangyuan Li,  WanZhen Liang,  N. J. Mayhall,  C. W. McCurdy,  J. B. Neaton,  
 T. Neudecker,  C. Ochsenfeld,  J. A. Parkhill,  R. Peverati,  
 V. A. Rassolov,  Haisheng Ren,  Yihan Shao,  L. V. Slipchenko,  
 R. P. Steele,  J. E. Subotnik,  A. J. W. Thom,  A. Tkatchenko,  
 D. G. Truhlar,  T. Van Voorhis,  Fan Wang,  T. A. Wesolowski,  K. B. Whaley,  
 H. L. Woodcock III,  P. M. Zimmerman,  S. Faraji,  P. M. W. Gill,  
 M. Head-Gordon,  J. M. Herbert,  A. I. Krylov

 Contributors to earlier versions of Q-Chem not listed above: 
 R. D. Adamson,  B. Austin,  R. Baer,  J. Baker,  G. J. O. Beran,  
 K. Brandhorst,  S. T. Brown,  E. F. C. Byrd,  Arup K. Chakraborty,  
 G. K. L. Chan,  Chun-Min Chang,  Yunqing Chen,  C.-L. Cheng,  
 Siu Hung Chien,  D. M. Chipman,  D. L. Crittenden,  H. Dachsel,  
 R. J. Doerksen,  A. D. Dutoi,  R. G. Edgar,  J. Fosso-Tande,  
 L. Fusti-Molnar,  D. Ghosh,  A. Ghysels,  A. Golubeva-Zadorozhnaya,  
 J. Gonthier,  M. S. Gordon,  S. R. Gwaltney,  G. Hawkins,  J. E. Herr,  
 A. Heyden,  S. Hirata,  E. G. Hohenstein,  G. Kedziora,  F. J. Keil,  
 C. Kelley,  Jihan Kim,  R. A. King,  R. Z. Khaliullin,  P. P. Korambath,  
 W. Kurlancheek,  A. Laurent,  A. M. Lee,  M. S. Lee,  S. V. Levchenko,  
 Ching Yeh Lin,  D. Liotard,  E. Livshits,  R. C. Lochan,  I. Lotan,  
 L. A. Martinez-Martinez,  P. E. Maslen,  N. Nair,  D. P. O'Neill,  
 D. Neuhauser,  E. Neuscamman,  C. M. Oana,  R. Olivares-Amaya,  R. Olson,  
 T. M. Perrine,  B. Peters,  P. A. Pieniazek,  A. Prociuk,  Y. M. Rhee,  
 J. Ritchie,  M. A. Rohrdanz,  E. Rosta,  N. J. Russ,  H. F. Schaefer III,  
 M. W. Schmidt,  N. E. Schultz,  S. Sharma,  N. Shenvi,  C. D. Sherrill,  
 A. C. Simmonett,  A. Sodt,  T. Stein,  D. Stuck,  K. S. Thanthiriwatte,  
 V. Vanovschi,  L. Vogt,  Tao Wang,  A. Warshel,  M. A. Watson,  
 C. F. Williams,  Q. Wu,  X. Xu,  Jun Yang,  W. Zhang,  Yan Zhao

   Please cite Q-Chem as follows:
  "Software for the frontiers of quantum chemistry:
   An overview of developments in the Q-Chem 5 package"
   J. Chem. Phys. 155, 084801 (2021)
   https://doi.org/10.1063/5.0055522 (open access)

 Q-Chem 6.2.1 for Intel X86 EM64T Linux

 Parts of Q-Chem use Armadillo 9.900.5 (Nocturnal Misbehaviour).
 http://arma.sourceforge.net/

 Q-Chem begins on Sat Apr 19 08:15:10 2025  

 Host: login24
0

     Scratch files written to /pscratch/sd/b/bschramm/qchem741497//
 Sep124 |scratch|qcdevops|jenkins|workspace|build_RNUM -1
 Processing $rem in /global/common/software/nersc9/qchem/6.2.1-cpu/config/preferences:
 Processing $rem in /global/homes/b/bschramm/.qchemrc:
 Core orbitals will be frozen

 Checking the input file for inconsistencies... 	...done.

--------------------------------------------------------------
User input:
--------------------------------------------------------------
$molecule
0 1
F
F  1 1.412938
$end

$rem
METHOD          ccsd(T)
BASIS aug-cc-pVdz
GUI 2
MEM_TOTAL 24000
$end

--------------------------------------------------------------
 ----------------------------------------------------------------
             Standard Nuclear Orientation (Angstroms)
    I     Atom           X                Y                Z
 ----------------------------------------------------------------
    1      F       0.0000000000     0.0000000000    -0.7064690000
    2      F       0.0000000000     0.0000000000     0.7064690000
 ----------------------------------------------------------------
 Molecular Point Group                 D2h   NOp =  8
 Largest Abelian Subgroup              D2h   NOp =  8
 Nuclear Repulsion Energy =          30.33633046 hartrees
 There are        9 alpha and        9 beta electrons
 Requested basis set is aug-cc-pVDZ
 There are 18 shells and 46 basis functions
 Total memory of 24000 MB is distributed as follows: 
   MEM_STATIC is set to 192 MB
   QALLOC/CCMAN JOB total memory use is  23808 MB
 Warning: actual memory use might exceed 24000 MB

 Total QAlloc Memory Limit  24000 MB
 Mega-Array Size       188 MB
 MEM_STATIC part       192 MB


                       Distance Matrix (Angstroms)
             F (  1)
   F (  2)  1.412938
 
 A cutoff of  1.0D-14 yielded    171 shell pairs
 There are      1139 function pairs (      1353 Cartesian)
 Smallest overlap matrix eigenvalue = 3.77E-03

 Scale SEOQF with 1.000000e+00/1.000000e+00/1.000000e-01

 Standard Electronic Orientation quadrupole field applied
 Nucleus-field energy     =    -0.0000000010 hartrees
 Guess from superposition of atomic densities
 Warning:  Energy on first SCF cycle will be non-variational
 SAD guess density has 18.000000 electrons

 -----------------------------------------------------------------------
  General SCF calculation program by
  Eric Jon Sundstrom, Paul Horn, Yuezhi Mao, Dmitri Zuev, Alec White,
  David Stuck, Shaama M.S., Shane Yost, Joonho Lee, David Small,
  Daniel Levine, Susi Lehtola, Hugh Burton, Evgeny Epifanovsky,
  Bang C. Huynh
 -----------------------------------------------------------------------
 Hartree-Fock
 using 18 threads for integral computing
 -------------------------------------------------------
 OpenMP Integral computing Module                
 Release: version 1.0, May 2013, Q-Chem Inc. Pittsburgh 
 -------------------------------------------------------
 A restricted SCF calculation will be
 performed using DIIS
 SCF converges when DIIS error is below 1.0e-08
 ---------------------------------------_____________________________________________________!!!!!!! How the HF converges
  Cycle       Energy         DIIS error
 ---------------------------------------
    1    -198.5137076769      5.23e-02  
    2    -198.6745719516      1.13e-02  
    3    -198.6964727344      3.81e-03  
    4    -198.6985665094      5.94e-04  
    5    -198.6986697663      1.37e-04  
    6    -198.6986751305      2.13e-05  
    7    -198.6986752851      2.43e-06  
    8    -198.6986752865      2.32e-07  
    9    -198.6986752865      1.97e-08  
   10    -198.6986752865      1.54e-09  Convergence criterion met
 ---------------------------------------
 SCF time:   CPU 26.61s  wall 2.00s 
 SCF   energy =  -198.69867529
 Total energy =  -198.69867529


 ------------------------------------------------------------------------------

   CCMAN2: suite of methods based on coupled cluster
           and equation of motion theories.

   Components:
   * libvmm-1.3-trunk
     by Evgeny Epifanovsky, Ilya Kaliman.
   * libtensor-2.5-trunk
     by Evgeny Epifanovsky, Michael Wormit, Dmitry Zuev, Sam Manzer, 
        Ilya Kaliman.
   * libcc-2.5-trunk
     by Evgeny Epifanovsky, Arik Landau, Tomasz Kus, Kirill Khistyaev, 
        Dmitry Zuev, Prashant Manohar, Xintian Feng, Anna Krylov, 
        Matthew Goldey, Alec White, Thomas Jagau, Kaushik Nanda, 
        Anastasia Gunina, Alexander Kunitsa, Joonho Lee.

   CCMAN original authors:
   Anna I. Krylov, C. David Sherrill, Steven R. Gwaltney,
   Edward F. C. Byrd (2000)
   Sergey V. Levchenko, Lyudmila V. Slipchenko, Tao Wang,
   Ana-Maria C. Cristian (2003)
   Piotr A. Pieniazek, C. Melania Oana, Evgeny Epifanovsky (2007)
   Prashant Manohar (2009)

 ------------------------------------------------------------------------------


 Allocating and initializing 23808MB of RAM...
 Calculation will run on 18 cores.

 
 Alpha MOs, Restricted
 -- Occupied --                  
-26.447 -26.447  -1.775  -1.508  -0.814  -0.814  -0.757  -0.670
  1 Ag    1 B1u   2 Ag    2 B1u   1 B3u   1 B2u   3 Ag    1 B2g                
 -0.670
  1 B3g                                                                        
 -- Virtual --                   
  0.059   0.208   0.212   0.234   0.234   0.292   0.292   0.319
  3 B1u   4 B1u   4 Ag    2 B3u   2 B2u   2 B2g   2 B3g   5 Ag                 
  0.523   1.183   1.183   1.236   1.236   1.419   1.483   1.483
  5 B1u   1 B1g   6 Ag    3 B3u   3 B2u   7 Ag    1 Au    6 B1u                
  1.561   1.561   1.568   1.568   1.579   1.867   2.068   2.090
  4 B3u   4 B2u   3 B2g   3 B3g   7 B1u   8 B1u   8 Ag    4 B2g                
  2.090   2.305   4.074   4.743   4.743   4.828   4.832   4.832
  4 B3g   9 Ag    9 B1u   2 B1g  10 Ag   11 Ag    2 Au   10 B1u                
  4.839   4.839   4.906   4.906   5.113
  5 B3u   5 B2u   5 B2g   5 B3g  11 B1u                                        
 
 Beta MOs, Restricted
 -- Occupied --                  
-26.447 -26.447  -1.775  -1.508  -0.814  -0.814  -0.757  -0.670
  1 Ag    1 B1u   2 Ag    2 B1u   1 B3u   1 B2u   3 Ag    1 B2g                
 -0.670
  1 B3g                                                                        
 -- Virtual --                   
  0.059   0.208   0.212   0.234   0.234   0.292   0.292   0.319
  3 B1u   4 B1u   4 Ag    2 B3u   2 B2u   2 B2g   2 B3g   5 Ag                 
  0.523   1.183   1.183   1.236   1.236   1.419   1.483   1.483
  5 B1u   1 B1g   6 Ag    3 B3u   3 B2u   7 Ag    1 Au    6 B1u                
  1.561   1.561   1.568   1.568   1.579   1.867   2.068   2.090
  4 B3u   4 B2u   3 B2g   3 B3g   7 B1u   8 B1u   8 Ag    4 B2g                
  2.090   2.305   4.074   4.743   4.743   4.828   4.832   4.832
  4 B3g   9 Ag    9 B1u   2 B1g  10 Ag   11 Ag    2 Au   10 B1u                
  4.839   4.839   4.906   4.906   5.113
  5 B3u   5 B2u   5 B2g   5 B3g  11 B1u                                        

 Occupation and symmetry of molecular orbitals

 Point group: D2h (8 irreducible representations).

                           Ag   B1g  B2g  B3g  Au   B1u  B2u  B3u   All 
 ------------------------------------------------------------------------
 All molecular orbitals:
  - Alpha                  11   2    5    5    2    11   5    5     46  
  - Beta                   11   2    5    5    2    11   5    5     46  
 ------------------------------------------------------------------------
 Alpha orbitals:
  - Frozen occupied        1    0    0    0    0    1    0    0     2   
  - Active occupied        2    0    1    1    0    1    1    1     7   
  - Active virtual         8    2    4    4    2    9    4    4     37  
  - Frozen virtual         0    0    0    0    0    0    0    0     0   
 ------------------------------------------------------------------------
 Beta orbitals:
  - Frozen occupied        1    0    0    0    0    1    0    0     2   
  - Active occupied        2    0    1    1    0    1    1    1     7   
  - Active virtual         8    2    4    4    2    9    4    4     37  
  - Frozen virtual         0    0    0    0    0    0    0    0     0   
 ------------------------------------------------------------------------

 Import integrals:   CPU 0.00 s  wall 0.00 s

 Import integrals:   CPU 4.15 s  wall 0.27 s


 MP2  CPU 1.24 s  wall 1.08 s
Running a double precision version
           CCSD T amplitudes will be solved using DIIS. _____________________________________________________!!!!!!! How the CC converges

           Start     Size      MaxIter   EConv     TConv     
           3         7         100       1.00e-06  1.00e-04  
 ------------------------------------------------------------------------------
           Energy (a.u.)   Ediff      Tdiff       Comment
 ------------------------------------------------------------------------------
          -199.12680924                           
     1    -199.11826013   8.55e-03   5.34e-01     
     2    -199.13211273   1.39e-02   6.59e-02     
     3    -199.13212204   9.30e-06   3.22e-02     
     4    -199.13370741   1.59e-03   8.63e-03     Switched to DIIS steps.
     5    -199.13418968   4.82e-04   7.63e-03     
     6    -199.13419445   4.77e-06   1.11e-03     
     7    -199.13419447   2.20e-08   5.27e-04     
     8    -199.13419831   3.84e-06   3.59e-04     
     9    -199.13419803   2.79e-07   7.12e-05     
 ------------------------------------------------------------------------------
          -199.13419803                           CCSD T converged.

 End of double precision

WARNING: YOUR (T) CALCULATION MAY RUN OUT OF MEMORY
REDUCE CC_MEMORY OR USE CC_BACKEND=XM IF THIS HAPPENS

----------------------------------------
libpt (c) 2016-2019 Ilya Kaliman
Fast Coupled Cluster Triples Corrections
https://github.com/ilyak/libpt
----------------------------------------

 Starting (T) calculation...
 Using double precision libpt code
 Running restricted (T) code
 Using 1 integral batch

 (T) calculation completed in 0.06 sec
 (T) energy is -0.0128643787

 Total ccsd_pt time: 0.00 sec. (cpu) 0.00 sec. (wall) 
 SCF energy                 = -198.69867529 --------------------------------------------------------------!!!!!!!!
 MP2 energy                 = -199.12680924 SCF energy is the hartree-fock energy
 CCSD correlation energy    =   -0.43552274 the CCSD correlation is the correction that is added to the hartree-fock
 CCSD total energy          = -199.13419803 energy. The orbital energies are below. 
 CCSD(T) correlation energy =   -0.01286438
 CCSD(T) total energy       = -199.14706241

 CCSD  T1^2 = 0.0055  T2^2 = 0.1179  Leading amplitudes:

 Amplitude    Orbitals with energies
  0.0227       1 (B2u) A                 ->    2 (B2u) A                  
              -0.8138                          0.2340                     
  0.0227       1 (B2u) B                 ->    2 (B2u) B                  
              -0.8138                          0.2340                     
  0.0227       1 (B3u) A                 ->    2 (B3u) A                  
              -0.8138                          0.2340                     
  0.0227       1 (B3u) B                 ->    2 (B3u) B                  
              -0.8138                          0.2340                     

 Amplitude    Orbitals with energies
 -0.1294       3 (Ag) A      3 (Ag) B    ->    3 (B1u) A     3 (B1u) B    
              -0.7569       -0.7569            0.0591        0.0591       
  0.1294       3 (Ag) A      3 (Ag) B    ->    3 (B1u) B     3 (B1u) A    
              -0.7569       -0.7569            0.0591        0.0591       
  0.1294       3 (Ag) B      3 (Ag) A    ->    3 (B1u) A     3 (B1u) B    
              -0.7569       -0.7569            0.0591        0.0591       
 -0.1294       3 (Ag) B      3 (Ag) A    ->    3 (B1u) B     3 (B1u) A    
              -0.7569       -0.7569            0.0591        0.0591       


 CCSD  CPU 29.64 s  wall 5.52 s
 Total ccman2 time:   CPU 41.78 s  wall 7.88 s

 
 --------------------------------------------------------------
             Orbital Energies (a.u.) and Symmetries --------------------------------------------------!!!!!!
 --------------------------------------------------------------
 
 Alpha MOs, Restricted
 -- Occupied --                  
-26.447 -26.447  -1.775  -1.508  -0.814  -0.814  -0.757  -0.670
  1 Ag    1 B1u   2 Ag    2 B1u   1 B3u   1 B2u   3 Ag    1 B2g                
 -0.670
  1 B3g                                                                        
 -- Virtual --                   
  0.059   0.208   0.212   0.234   0.234   0.292   0.292   0.319
  3 B1u   4 B1u   4 Ag    2 B3u   2 B2u   2 B2g   2 B3g   5 Ag                 
  0.523   1.183   1.183   1.236   1.236   1.419   1.483   1.483
  5 B1u   1 B1g   6 Ag    3 B3u   3 B2u   7 Ag    1 Au    6 B1u                
  1.561   1.561   1.568   1.568   1.579   1.867   2.068   2.090
  4 B3u   4 B2u   3 B2g   3 B3g   7 B1u   8 B1u   8 Ag    4 B2g                
  2.090   2.305   4.074   4.743   4.743   4.828   4.832   4.832
  4 B3g   9 Ag    9 B1u   2 B1g  10 Ag   11 Ag    2 Au   10 B1u                
  4.839   4.839   4.906   4.906   5.113
  5 B3u   5 B2u   5 B2g   5 B3g  11 B1u                                        
 
 Beta MOs, Restricted
 -- Occupied --                  
-26.447 -26.447  -1.775  -1.508  -0.814  -0.814  -0.757  -0.670
  1 Ag    1 B1u   2 Ag    2 B1u   1 B3u   1 B2u   3 Ag    1 B2g                
 -0.670
  1 B3g                                                                        
 -- Virtual --                   
  0.059   0.208   0.212   0.234   0.234   0.292   0.292   0.319
  3 B1u   4 B1u   4 Ag    2 B3u   2 B2u   2 B2g   2 B3g   5 Ag                 
  0.523   1.183   1.183   1.236   1.236   1.419   1.483   1.483
  5 B1u   1 B1g   6 Ag    3 B3u   3 B2u   7 Ag    1 Au    6 B1u                
  1.561   1.561   1.568   1.568   1.579   1.867   2.068   2.090
  4 B3u   4 B2u   3 B2g   3 B3g   7 B1u   8 B1u   8 Ag    4 B2g                
  2.090   2.305   4.074   4.743   4.743   4.828   4.832   4.832
  4 B3g   9 Ag    9 B1u   2 B1g  10 Ag   11 Ag    2 Au   10 B1u                
  4.839   4.839   4.906   4.906   5.113
  5 B3u   5 B2u   5 B2g   5 B3g  11 B1u                                        
 --------------------------------------------------------------
 
          Ground-State Mulliken Net Atomic Charges

     Atom                 Charge (a.u.)
  ----------------------------------------
      1 F                     0.000000
      2 F                    -0.000000
  ----------------------------------------
  Sum of atomic charges =     0.000000

 -----------------------------------------------------------------
                    Cartesian Multipole Moments
 -----------------------------------------------------------------
    Charge (ESU x 10^10)
                -0.0000
    Dipole Moment (Debye)
         X       0.0000      Y       0.0000      Z      -0.0000
       Tot       0.0000
    Quadrupole Moments (Debye-Ang)
        XX      -9.5999     XY       0.0000     YY      -9.5999
        XZ       0.0000     YZ       0.0000     ZZ      -8.6872
    Octopole Moments (Debye-Ang^2)
       XXX       0.0000    XXY       0.0000    XYY       0.0000
       YYY       0.0000    XXZ       0.0000    XYZ       0.0000
       YYZ       0.0000    XZZ       0.0000    YZZ       0.0000
       ZZZ      -0.0000
    Hexadecapole Moments (Debye-Ang^3)
      XXXX      -5.5728   XXXY       0.0000   XXYY      -1.8576
      XYYY       0.0000   YYYY      -5.5728   XXXZ       0.0000
      XXYZ       0.0000   XYYZ       0.0000   YYYZ       0.0000
      XXZZ      -6.6276   XYZZ       0.0000   YYZZ      -6.6276
      XZZZ       0.0000   YZZZ       0.0000   ZZZZ     -29.3160
 -----------------------------------------------------------------
 Total job time:  13.34s(wall), 84.09s(cpu) 
 Sat Apr 19 08:15:24 2025

        *************************************************************
        *                                                           *
        *  Thank you very much for using Q-Chem.  Have a nice day.  *
        *                                                           *
        *************************************************************


